#LAMMPS data file

21264 atoms
2340 ellipsoids
66895 bonds
0 angles
0 dihedrals
0 impropers

42 atom types
50487 bond types
0 angle types

-1183.1314911897116 1183.1314911897116 xlo xhi
-1183.1314911897116 1183.1314911897116 ylo yhi
-1183.1314911897116 1183.1314911897116 zlo zhi

Atoms

1 13 51.630925030870564 -147.61487774706376 -784.1728420512949 0 1 1 0
2 16 54.51580503087057 -149.74507774706376 -784.8552420512949 0 1 1 0
3 7 53.702945030870566 -153.53447774706376 -785.0675420512949 0 1 1 -1
4 17 54.526655030870565 -157.22107774706376 -784.9100420512949 0 1 1 0
5 1 57.09910503087057 -159.43337774706376 -783.149442051295 0 1 1 0
6 15 57.946715030870564 -156.79607774706375 -780.6423420512949 0 1 1 0
7 1 57.53940503087057 -153.90967774706377 -777.9377420512949 0 1 1 0
8 1 60.25034503087057 -151.73157774706377 -777.635442051295 0 1 1 0
9 15 57.53183503087057 -149.19937774706375 -776.6631420512949 0 1 1 0
10 1 53.88261503087057 -149.21997774706375 -777.5015420512949 0 1 1 0
11 1 52.47602503087057 -151.85267774706375 -775.4091420512949 0 1 1 0
12 1 51.05059503087057 -155.10247774706377 -776.037042051295 0 1 1 0
13 15 53.36437503087057 -157.62757774706375 -774.0848420512949 0 1 1 0
14 15 54.561715030870566 -156.93317774706375 -770.502242051295 0 1 1 0
15 1 51.749075030870564 -156.34707774706376 -768.2786420512949 0 1 1 0
16 7 50.85934503087057 -153.52087774706376 -765.9047420512949 0 1 1 -1
17 12 50.15214503087057 -155.42997774706376 -762.6835420512949 0 1 1 1
18 1 47.87939503087057 -156.53177774706376 -759.8721420512949 0 1 1 0
19 15 45.14633503087057 -158.79637774706376 -758.629042051295 0 1 1 0
20 20 45.982555030870564 -158.20017774706378 -754.8125420512949 0 1 1 0
21 12 43.42947503087057 -156.35047774706376 -752.6755420512949 0 1 1 1
22 12 40.147385030870566 -156.22987774706377 -754.3598420512949 0 1 1 1
23 12 37.26424503087057 -156.95287774706375 -751.7633420512949 0 1 1 1
24 1 34.89934503087056 -159.20407774706376 -749.8942420512949 0 1 1 0
25 1 35.07544503087057 -157.03187774706376 -747.089542051295 0 1 1 0
26 12 34.75804503087057 -153.75847774706375 -744.711942051295 0 1 1 1
27 12 33.04404503087056 -152.69157774706377 -742.0224420512949 0 1 1 1
28 1 31.31004503087057 -149.52387774706375 -742.438342051295 0 1 1 0
29 8 28.245745030870566 -147.38137774706377 -742.2462420512949 0 1 1 0
30 8 29.96864503087057 -144.25477774706377 -741.523042051295 0 1 1 0
31 17 28.022645030870567 -144.06217774706377 -738.5048420512949 0 1 1 0
32 15 28.594145030870568 -140.99867774706377 -736.4966420512949 0 1 1 0
33 2 31.760845030870566 -139.38307774706377 -734.920242051295 0 1 1 1
34 12 35.08104503087057 -137.96987774706378 -736.1695420512949 0 1 1 1
35 1 37.31184503087057 -134.84597774706376 -735.772142051295 0 1 1 0
36 16 39.59391503087057 -135.06397774706375 -732.6379420512949 0 1 1 0
37 8 37.48834503087057 -135.59877774706376 -729.4930420512949 0 1 1 0
38 15 37.52044503087057 -139.26397774706376 -728.585042051295 0 1 1 0
39 35 36.62274503087057 -139.39227774706376 -724.9271420512949 0 1 1 0
40 40 33.55384503087057 -137.76967774706375 -722.625342051295 0 1 1 0
41 36 32.64624503087057 -139.81847774706375 -720.3230420512949 0 1 1 0
42 27 35.944145030870565 -141.54487774706377 -719.9372420512949 0 1 1 -1
43 31 37.09744503087057 -138.04107774706375 -718.5853420512949 0 1 1 0
44 30 34.601045030870566 -138.70177774706377 -716.175102051295 0 1 1 0
45 37 36.47144503087057 -141.04817774706376 -714.781102051295 0 1 1 0
46 32 39.796515030870566 -141.50957774706376 -715.578342051295 0 1 1 1
47 21 38.83972503087057 -138.84527774706376 -712.6800820512949 0 1 1 0
48 40 39.00329503087057 -136.53697774706376 -714.2233220512949 0 1 1 0
49 21 42.995475030870566 -138.07057774706377 -714.6011420512949 0 1 1 0
50 21 42.741625030870566 -137.03897774706377 -717.6730620512949 0 1 1 0
51 36 40.929885030870565 -133.88657774706377 -717.2978720512949 0 1 1 0
52 32 42.936015030870564 -130.16477774706377 -717.304832051295 0 1 1 1
53 27 40.456525030870566 -129.11317774706376 -714.8898820512949 0 1 1 -1
54 22 40.508275030870564 -126.35867774706377 -712.476172051295 0 1 1 1
55 36 36.17884503087057 -126.60377774706376 -712.4487720512949 0 1 1 0
56 28 36.45404503087057 -130.26947774706377 -713.8072120512949 0 1 1 0
57 40 34.88004503087057 -133.85537774706376 -713.0703920512949 0 1 1 0
58 36 32.11564503087057 -134.72307774706377 -711.347922051295 0 1 1 0
59 31 28.926845030870567 -135.80677774706376 -710.9071220512949 0 1 1 0
60 21 28.32544503087057 -139.15487774706378 -711.2051520512949 0 1 1 0
61 21 31.501845030870566 -140.04047774706376 -711.9938520512949 0 1 1 0
62 31 32.78004503087057 -139.47327774706378 -709.087745051295 0 1 1 0
63 32 28.597645030870567 -143.15877774706377 -708.0376470512949 0 1 1 1
64 32 29.987845030870567 -145.34807774706377 -708.7718017112949 0 1 1 1
65 21 34.14274503087057 -144.56517774706376 -710.199202051295 0 1 1 0
66 31 32.46804503087057 -142.72187774706376 -713.4054820512949 0 1 1 0
67 21 31.257845030870566 -140.25757774706375 -711.091532051295 0 1 1 0
68 21 34.37184503087057 -139.97047774706377 -709.635518051295 0 1 1 0
69 21 35.203345030870565 -139.20607774706377 -713.641022051295 0 1 1 0
70 28 32.315745030870566 -136.30727774706378 -713.6409120512949 0 1 1 0
71 39 29.70354503087057 -138.31837774706378 -715.1954720512949 0 1 1 0
72 24 26.06934503087057 -138.84697774706376 -713.5210720512949 0 1 1 -1
73 40 25.832645030870566 -142.39927774706376 -713.432622051295 0 1 1 0
74 27 22.29324503087057 -143.00277774706376 -711.1355920512949 0 1 1 -1
75 32 20.577945030870566 -142.00957774706376 -714.3161020512949 0 1 1 1
76 23 23.013645030870567 -141.69387774706377 -717.2872020512949 0 1 1 0
77 23 24.26134503087057 -138.36187774706377 -715.5761020512949 0 1 1 0
78 36 23.422245030870567 -136.92377774706375 -719.4748420512949 0 1 1 0
79 22 26.684445030870567 -138.59467774706377 -720.335042051295 0 1 1 1
80 30 28.826045030870567 -138.37127774706377 -718.0480920512949 0 1 1 0
81 32 27.733545030870566 -134.20347774706377 -720.0835420512949 0 1 1 1
82 31 27.218245030870566 -133.25017774706376 -717.6673420512949 0 1 1 0
83 28 31.61804503087057 -134.85497774706377 -718.2697720512949 0 1 1 0
84 31 31.920745030870567 -133.34297774706377 -715.606252051295 0 1 1 0
85 32 28.72014503087057 -134.26147774706376 -713.4415220512949 0 1 1 1
86 36 29.355545030870566 -137.75137774706377 -714.5881920512949 0 1 1 0
87 31 32.802245030870566 -137.84777774706376 -713.4371120512949 0 1 1 0
88 40 31.818045030870568 -136.00037774706377 -709.8934820512949 0 1 1 0
89 36 29.007345030870567 -138.79617774706378 -709.4707030512949 0 1 1 0
90 32 31.43964503087057 -141.62407774706378 -710.6251120512949 0 1 1 1
91 28 33.916545030870566 -140.11577774706376 -707.9362650512949 0 1 1 0
92 37 36.615545030870564 -139.49237774706376 -710.3699720512949 0 1 1 0
93 31 36.366445030870565 -135.96567774706375 -709.770122051295 0 1 1 0
94 40 35.81994503087057 -134.01077774706377 -706.2033620512949 0 1 1 0
95 26 34.610845030870564 -130.94237774706377 -705.179202051295 0 1 1 0
96 37 34.90314503087057 -127.62337774706376 -705.8665120512949 0 1 1 0
97 32 31.638745030870567 -126.25267774706376 -707.578072051295 0 1 1 1
98 28 31.524445030870567 -125.07317774706377 -711.416242051295 0 1 1 0
99 37 27.91394503087057 -124.70927774706377 -713.0988120512949 0 1 1 0
100 28 25.458745030870567 -127.47437774706376 -713.8450220512949 0 1 1 0
101 21 26.627745030870567 -130.45367774706375 -715.9152120512949 0 1 1 0
102 36 30.07064503087057 -130.41287774706376 -715.1170420512949 0 1 1 0
103 28 30.527545030870566 -129.44247774706378 -711.452532051295 0 1 1 0
104 36 32.67384503087057 -131.35457774706376 -709.251840051295 0 1 1 0
105 34 36.734545030870564 -130.32227774706377 -709.272586051295 0 1 1 0
106 32 39.79744503087057 -132.00617774706376 -709.5995140512949 0 1 1 1
107 31 40.89571503087057 -135.85857774706375 -708.8459279512949 0 1 1 0
108 23 39.64560503087057 -137.50027774706376 -706.1145620512949 0 1 1 0
109 12 42.141335030870565 -138.37057774706375 -703.1411620512949 0 1 1 1
110 12 41.844685030870565 -139.01137774706376 -699.5515220512949 0 1 1 1
111 1 40.58965503087057 -137.58417774706376 -696.4237420512949 0 1 1 0
112 1 39.254155030870564 -138.45097774706375 -692.8664420512949 0 1 1 0
113 16 36.933245030870566 -140.26657774706376 -690.4911420512949 0 1 1 0
114 8 39.88787503087057 -141.43527774706376 -688.484542051295 0 1 1 0
115 7 40.85156503087057 -143.70217774706376 -685.5290420512949 0 1 1 -1
116 1 39.244045030870566 -142.99127774706375 -682.0637420512949 0 1 1 0
117 12 41.18397503087057 -145.55597774706376 -680.7711420512949 0 1 1 1
118 15 44.31091503087057 -143.80177774706377 -681.375842051295 0 1 1 0
119 12 46.39891503087057 -142.94777774706375 -684.268042051295 0 1 1 1
120 20 46.240395030870566 -139.29297774706376 -683.2519420512949 0 1 1 0
121 12 48.84794303087057 -136.55717774706375 -682.149342051295 0 1 1 1
122 12 47.22516503087057 -133.15017774706376 -681.5625420512949 0 1 1 1
123 1 43.31148503087057 -133.88387774706376 -682.671642051295 0 1 1 0
124 8 40.17447503087057 -131.81677774706375 -682.725442051295 0 1 1 0
125 8 37.387845030870565 -130.65937774706376 -684.418942051295 0 1 1 0
126 17 34.25374503087057 -131.73777774706377 -682.6524420512949 0 1 1 0
127 12 31.702445030870567 -131.09967774706377 -685.4490420512949 0 1 1 1
128 15 28.455245030870568 -130.58727774706375 -687.1478420512949 0 1 1 0
129 12 24.940945030870566 -128.85827774706377 -686.2355420512949 0 1 1 1
130 12 21.485945030870568 -127.52117774706376 -687.060142051295 0 1 1 1
131 15 19.85104503087057 -130.29337774706377 -684.9679420512949 0 1 1 0
132 20 16.249845030870567 -129.74947774706376 -684.1070420512949 0 1 1 0
133 8 14.418445030870565 -132.55307774706375 -682.1971420512949 0 1 1 0
134 1 12.951045030870567 -136.21167774706376 -681.9681420512949 0 1 1 0
135 1 10.76724503087057 -139.30537774706377 -682.551642051295 0 1 1 0
136 12 10.473045030870566 -141.90727774706377 -679.8724420512949 0 1 1 1
137 12 12.250045030870567 -145.39547774706375 -679.3078420512949 0 1 1 1
138 15 13.035645030870569 -148.28147774706378 -676.6527420512949 0 1 1 0
139 12 13.44794503087057 -147.85637774706376 -673.0804420512949 0 1 1 1
140 12 12.430645030870565 -150.41267774706375 -670.6626420512949 0 1 1 1
141 1 13.486545030870566 -152.96907774706375 -668.2311420512949 0 1 1 0
142 1 11.272245030870565 -156.14367774706375 -668.493642051295 0 1 1 0
143 8 9.59624503087057 -157.72227774706377 -665.6244420512949 0 1 1 0
144 8 6.243745030870571 -157.32607774706378 -663.3936420512949 0 1 1 0
145 1 3.2728450308705703 -159.00407774706377 -661.5231420512949 0 1 1 0
146 17 4.158245030870567 -158.65777774706376 -657.8603420512949 0 1 1 0
147 15 7.85674503087057 -159.05597774706376 -657.497742051295 0 1 1 0
148 12 10.952745030870567 -159.14757774706376 -659.7602420512949 0 1 1 1
149 12 14.618545030870564 -160.28577774706378 -660.3374420512949 0 1 1 1
150 16 15.280145030870564 -163.94237774706377 -661.198842051295 0 1 1 0
151 1 18.455245030870568 -164.01857774706377 -659.1230420512949 0 1 1 0
152 12 21.972845030870566 -164.15507774706376 -657.6164420512949 0 1 1 1
153 12 24.18674503087057 -161.42027774706378 -658.5700420512949 0 1 1 1
154 17 23.99164503087057 -161.83307774706375 -662.3738420512949 0 1 1 0
155 15 24.43834503087057 -165.53727774706377 -663.3100420512949 0 1 1 0
156 12 26.295745030870567 -168.08917774706376 -665.422542051295 0 1 1 1
157 12 28.812245030870567 -169.84107774706376 -663.1590420512949 0 1 1 1
158 1 28.807445030870568 -173.86877774706377 -662.7131420512949 0 1 1 0
159 12 29.022245030870568 -176.72367774706376 -665.4490420512949 0 1 1 1
160 12 26.44104503087057 -179.42523774706376 -665.9757420512949 0 1 1 1
161 15 25.69404503087057 -183.18707774706377 -664.6721420512949 0 1 1 0
162 1 28.071045030870568 -186.27984774706377 -664.2483420512949 0 1 1 0
163 1 30.252445030870568 -189.30208774706375 -664.7642420512949 0 1 1 0
164 1 33.75804503087057 -190.61186774706377 -665.373542051295 0 1 1 0
165 17 36.65724503087057 -190.76382774706377 -663.1768420512949 0 1 1 0
166 20 40.14472503087057 -192.40795774706376 -662.5482420512949 0 1 1 0
167 17 38.59194503087057 -195.16733774706375 -660.7543420512949 0 1 1 0
168 12 35.099745030870565 -197.12221774706376 -660.2615420512949 0 1 1 1
169 12 34.532145030870566 -199.55287774706377 -656.8660420512949 0 1 1 1
170 20 37.50694503087057 -201.02777774706377 -655.6732420512949 0 1 1 0
171 1 35.97694503087057 -204.67107774706375 -655.089142051295 0 1 1 0
172 12 35.28944503087057 -204.48167774706377 -651.472842051295 0 1 1 1
173 16 32.82014503087056 -201.65047774706377 -652.5935420512949 0 1 1 0
174 15 32.330045030870565 -199.75377774706376 -649.568742051295 0 1 1 0
175 12 35.407145030870566 -198.14727774706375 -648.0726420512949 0 1 1 1
176 12 38.64520503087057 -198.54277774706375 -645.8291420512949 0 1 1 1
177 1 39.87814503087057 -197.81078774706376 -642.318742051295 0 1 1 0
178 12 37.74684503087057 -195.80669774706377 -640.1500420512949 0 1 1 1
179 20 38.43094503087057 -194.30164774706375 -636.7235420512949 0 1 1 0
180 1 41.841145030870564 -192.83421774706378 -635.6541420512949 0 1 1 0
181 12 45.41561503087057 -192.16384774706376 -636.694742051295 0 1 1 1
182 15 47.54829503087057 -192.28243774706377 -639.903542051295 0 1 1 0
183 12 50.23727503087057 -189.68261774706377 -640.7005420512949 0 1 1 1
184 12 52.242945030870565 -190.33398774706376 -643.9299420512949 0 1 1 1
185 1 54.68303503087057 -187.76419874706377 -645.3471420512949 0 1 1 0
186 1 54.77723503087057 -184.20933774706376 -645.6592420512949 0 1 1 0
187 12 51.861875030870564 -183.24019774706377 -647.994942051295 0 1 1 1
188 16 53.48095503087057 -180.26324774706376 -649.4753420512949 0 1 1 0
189 1 55.73962503087057 -177.93897774706377 -647.638142051295 0 1 1 0
190 1 58.72894503087057 -175.70667774706376 -646.6579420512949 0 1 1 0
191 12 62.25734503087057 -175.83777774706377 -645.576042051295 0 1 1 1
192 1 60.57954503087057 -175.77447774706377 -641.9031420512949 0 1 1 0
193 20 57.267325030870566 -176.46407774706375 -640.5083420512949 0 1 1 0
194 12 55.15728503087057 -173.47097774706376 -639.411142051295 0 1 1 1
195 15 54.78244503087057 -170.06627774706376 -641.6111420512949 0 1 1 0
196 12 54.578055030870566 -167.28537774706376 -639.0052420512949 0 1 1 1
197 1 50.84008503087057 -168.01837774706377 -640.273442051295 0 1 1 0
198 1 47.61558903087057 -169.88557774706376 -639.7552420512949 0 1 1 0
199 12 47.161885030870565 -172.74057774706375 -642.248142051295 0 1 1 1
200 15 43.41464503087057 -173.19327774706377 -643.385842051295 0 1 1 0
201 12 39.809925030870566 -171.97077774706375 -644.229642051295 0 1 1 1
202 20 36.12954503087057 -172.43427774706376 -643.502642051295 0 1 1 0
203 20 35.84064503087057 -176.28547774706377 -643.7769420512949 0 1 1 0
204 12 38.24064503087057 -179.48437774706377 -643.2311420512949 0 1 1 1
205 15 35.75274503087057 -182.22141774706375 -642.1427420512949 0 1 1 0
206 12 31.984945030870566 -183.18547774706377 -642.325942051295 0 1 1 1
207 12 30.909645030870568 -179.55032774706376 -643.1269420512949 0 1 1 1
208 1 29.311145030870566 -176.18037774706377 -644.5881420512949 0 1 1 0
209 1 27.696945030870566 -174.88207774706376 -647.542142051295 0 1 1 0
210 15 26.80394503087057 -177.41247774706378 -650.057942051295 0 1 1 0
211 12 27.478745030870567 -178.83137774706375 -653.799842051295 0 1 1 1
212 12 26.036345030870567 -182.35483774706375 -653.0605420512949 0 1 1 1
213 12 27.104545030870568 -185.23027774706375 -655.7310420512949 0 1 1 1
214 1 76.53614503087057 -206.13007774706375 -728.1651420512949 0  1 2 0
215 2 75.23924503087056 -203.77757774706376 -725.000442051295 0  1 2 1
216 17 78.80414503087057 -204.21147774706375 -723.6047420512949 0  1 2 0
217 12 79.40774503087057 -204.05637774706378 -719.8208420512949 0  1 2 1
218 6 77.23564503087057 -206.00527774706376 -717.8936020512949 0  1 2 0
219 17 74.45824503087057 -207.56167774706375 -719.504442051295 0  1 2 0
220 1 72.10994503087056 -205.88517774706378 -717.108462051295 0  1 2 0
221 2 69.28404503087057 -203.41787774706376 -716.2253720512949 0  1 2 1
222 12 68.84114503087056 -201.29987774706376 -719.6510420512949 0  1 2 1
223 16 66.69104503087057 -198.66767774706375 -721.2659420512949 0  1 2 0
224 17 68.09794503087056 -195.09695774706375 -722.558442051295 0  1 2 0
225 8 68.48094503087057 -191.37300774706375 -721.413842051295 0  1 2 0
226 8 68.19814503087056 -190.87021774706378 -724.8648420512949 0  1 2 0
227 12 67.52584503087057 -187.74248774706376 -726.3766420512949 0  1 2 1
228 1 70.08134503087057 -187.36895874706377 -729.629942051295 0  1 2 0
229 15 70.24004503087056 -190.67916774706376 -731.3702420512949 0  1 2 0
230 2 68.67744503087057 -192.05972774706376 -734.4296420512949 0  1 2 1
231 12 65.17214503087057 -191.65385774706377 -735.8127420512949 0  1 2 1
232 6 62.306545030870566 -189.97226774706377 -733.7864420512949 0  1 2 0
233 11 62.00034503087057 -186.44331774706376 -731.9382420512949 0  1 2 0
234 1 60.07884503087057 -183.52855774706376 -733.040242051295 0  1 2 0
235 17 60.281045030870565 -181.54040774706377 -736.3399420512949 0  1 2 0
236 12 62.65464503087057 -178.90411774706376 -736.7492420512949 0  1 2 1
237 1 64.21844503087057 -177.48707774706375 -740.1044420512949 0  1 2 0
238 1 62.86674503087057 -175.31977774706377 -742.8136420512949 0  1 2 0
239 2 60.20434503087057 -172.80197774706377 -743.240442051295 0  1 2 1
240 12 61.14654503087057 -173.41967774706376 -746.877742051295 0  1 2 1
241 16 62.769045030870565 -173.00827774706377 -750.465942051295 0  1 2 0
242 1 63.74554503087057 -170.61717774706375 -753.1042420512949 0  1 2 0
243 15 62.58794503087057 -167.52207774706375 -751.715142051295 0  1 2 0
244 1 60.74714503087057 -164.70057774706376 -749.269442051295 0  1 2 0
245 17 63.92084503087057 -163.25567774706377 -747.4572420512949 0  1 2 0
246 8 66.80344503087056 -163.38827774706377 -745.2423420512949 0  1 2 0
247 8 64.97734503087057 -164.37527774706376 -742.0188420512949 0  1 2 0
248 20 67.59514503087057 -163.66057774706377 -739.4629420512949 0  1 2 0
249 12 66.67824503087057 -161.11657774706376 -736.879042051295 0  1 2 1
250 12 63.39754503087057 -160.37227774706378 -735.0961420512949 0  1 2 1
251 15 60.89904503087057 -160.46407774706375 -732.2145420512949 0  1 2 0
252 9 57.957955030870565 -162.52147774706376 -733.3329420512949 0  1 2 0.5
253 2 55.14148503087057 -164.59247774706375 -731.5015420512949 0  1 2 1
254 39 52.680555030870565 -164.71727774706375 -728.8236420512949 0  1 2 0
255 22 51.092495030870566 -163.30237774706376 -725.9942420512949 0  1 2 1
256 35 51.91096503087057 -164.12247774706375 -722.7618420512949 0  1 2 0
257 28 50.20472503087057 -167.21787774706377 -721.4056420512949 0  1 2 0
258 37 49.172613030870565 -168.53307774706377 -724.626742051295 0  1 2 0
259 40 52.30175503087057 -170.66737774706377 -725.4217420512949 0  1 2 0
260 21 52.05362503087057 -171.65247774706376 -721.7249420512949 0  1 2 0
261 31 48.74013503087057 -173.36537774706377 -722.3082420512949 0  1 2 0
262 22 50.35736503087057 -175.39837774706376 -724.991342051295 0  1 2 1
263 27 53.432795030870565 -175.99077774706376 -722.2230420512949 0  1 2 -1
264 30 50.798755030870566 -177.32927774706377 -719.6112420512949 0  1 2 0
265 22 49.03809003087057 -179.20206774706375 -722.4255420512949 0  1 2 1
266 22 52.657545030870565 -180.98529774706375 -722.954242051295 0  1 2 1
267 39 53.236255030870566 -182.08717774706378 -719.1900420512949 0  1 2 0
268 26 49.612435030870564 -182.94058774706377 -718.4600720512949 0  1 2 0
269 32 49.90488503087057 -185.51533774706377 -721.2004420512949 0  1 2 1
270 36 53.24671503087057 -186.82200774706376 -721.3087420512949 0  1 2 0
271 37 54.57304503087057 -188.56437674706376 -717.9930420512949 0  1 2 0
272 27 58.239855030870565 -188.29489374706375 -717.7694520512949 0  1 2 -1
273 31 59.951445030870566 -187.44957674706376 -714.4350020512949 0  1 2 0
274 31 60.69424503087057 -184.02685774706376 -714.0914120512949 0  1 2 0
275 30 63.779945030870564 -183.40935774706375 -712.2480320512949 0  1 2 0
276 22 67.35894503087057 -183.59793774706375 -713.3184520512949 0  1 2 1
277 32 69.05704503087057 -186.89133774706377 -712.062762051295 0  1 2 1
278 31 72.79794503087057 -185.64138774706376 -711.3107420512949 0  1 2 0
279 35 71.48544503087057 -182.58095774706376 -709.5073940512949 0  1 2 0
280 34 69.29934503087057 -184.65628774706377 -707.6349520512949 0  1 2 0
281 26 72.18334503087057 -187.11121974706376 -706.6285720512949 0  1 2 0
282 22 74.39724503087056 -184.36742774706377 -705.326812051295 0  1 2 1
283 31 71.41544503087057 -182.91453774706378 -703.2355120512949 0  1 2 0
284 40 70.56514503087057 -186.07033774706377 -701.7756220512949 0  1 2 0
285 22 74.13714503087057 -186.28279774706377 -700.482692051295 0  1 2 1
286 27 73.82074503087057 -183.07067774706377 -699.0584720512949 0  1 2 -1
287 30 70.34424503087057 -184.29746774706376 -697.103142051295 0  1 2 0
288 21 72.26334503087057 -187.83573574706375 -696.2036420512949 0  1 2 0
289 26 75.21104503087057 -186.14356774706377 -694.594642051295 0  1 2 0
290 24 73.36684503087056 -183.87665774706377 -692.2429420512949 0  1 2 -1
291 34 72.30484503087057 -186.71533774706376 -690.7624420512949 0  1 2 0
292 32 74.35154503087057 -189.70001774706375 -691.2112420512949 0  1 2 1
293 37 78.62674503087057 -189.98348774706378 -692.9212420512949 0  1 2 0
294 24 80.07774503087057 -192.64348774706377 -695.1391420512949 0  1 2 -1
295 31 76.88074503087057 -193.81812774706376 -697.4153420512949 0  1 2 0
296 22 75.48224503087057 -195.10798774706376 -700.8270520512949 0  1 2 1
297 34 72.19964503087057 -194.86961774706376 -702.3458820512949 0  1 2 0
298 26 70.81214503087057 -197.53789774706377 -704.6085420512949 0  1 2 0
299 36 69.97094503087057 -196.73965774706377 -708.0617430512949 0  1 2 0
300 36 66.22664503087057 -197.18279774706377 -707.1745020512949 0  1 2 0
301 21 66.68734503087057 -195.00533774706378 -703.8985620512949 0  1 2 0
302 40 67.74854503087056 -191.83682774706375 -705.6689720512949 0  1 2 0
303 33 64.73644503087057 -192.78529774706377 -708.427443051295 0  1 2 0
304 21 62.56214503087057 -193.64913774706378 -705.702572051295 0  1 2 0
305 31 63.104245030870565 -190.16483774706376 -703.669922051295 0  1 2 0
306 26 62.65854503087057 -188.19988074706376 -707.1546520512949 0  1 2 0
307 27 59.32554503087057 -189.96276774706377 -707.971267051295 0  1 2 -1
308 21 57.73098503087057 -189.26617774706375 -704.5751220512949 0  1 2 0
309 36 59.15914503087057 -185.91261774706376 -704.856302051295 0  1 2 0
310 27 57.479355030870565 -184.97287774706376 -708.1991720512949 0  1 2 -1
311 21 54.39741503087057 -186.58122774706376 -707.2751820512949 0  1 2 0
312 39 54.37457503087057 -184.50367774706376 -704.0850820512949 0  1 2 0
313 31 54.78099503087057 -181.41596774706377 -705.2907120512949 0  1 2 0
314 40 52.20246503087057 -182.08066774706376 -708.2766380512949 0  1 2 0
315 21 49.142717030870564 -182.83771774706375 -706.3303120512949 0  1 2 0
316 31 50.13621503087057 -179.96217774706378 -703.805192051295 0  1 2 0
317 34 50.11528503087057 -177.78117774706377 -707.0783220512949 0  1 2 0
318 27 46.56837503087057 -179.02344774706376 -707.9882020512949 0  1 2 -1
319 24 45.80081503087057 -177.82987774706376 -703.944022051295 0  1 2 -1
320 37 48.03593503087057 -174.48137774706376 -704.581982051295 0  1 2 0
321 23 46.309405030870565 -173.43307774706375 -707.4864920512949 0  1 2 0
322 31 43.20937503087057 -173.76647774706376 -705.8225220512949 0  1 2 0
323 25 44.229245030870565 -171.66207774706376 -702.909442051295 0  1 2 0
324 21 45.14850503087057 -168.95367774706375 -705.2670320512949 0  1 2 0
325 30 41.41572503087057 -169.10577774706377 -706.963972051295 0  1 2 0
326 29 40.22634503087057 -168.63117774706376 -703.356342051295 0  1 2 0.5
327 21 42.34693503087057 -165.57127774706376 -703.5835320512949 0  1 2 0
328 32 41.620965030870565 -164.67857774706377 -707.1522920512949 0  1 2 1
329 22 44.50929503087057 -165.42847774706377 -709.0987980512949 0  1 2 1
330 40 46.21569503087057 -167.43517774706376 -711.6807220512949 0  1 2 0
331 37 49.550042030870564 -166.76787774706378 -710.2594720512949 0  1 2 0
332 30 50.996545030870564 -168.88757774706377 -707.6435620512949 0  1 2 0
333 33 53.12711503087057 -167.03527774706376 -705.0724620512949 0  1 2 0
334 35 54.93806503087057 -168.35117774706376 -701.9897920512949 0  1 2 0
335 32 52.03123503087057 -167.65887774706377 -699.9824620512949 0  1 2 1
336 24 49.717425030870565 -170.52297774706375 -701.369592051295 0  1 2 -1
337 30 52.23012503087057 -173.29627774706375 -701.2538820512949 0  1 2 0
338 26 52.51525503087057 -172.47667774706377 -697.2661420512949 0  1 2 0
339 31 48.60770895087057 -171.99287774706377 -696.9973420512949 0  1 2 0
340 21 48.394639030870565 -175.32827774706377 -698.628142051295 0  1 2 0
341 22 50.731595030870565 -177.48087774706377 -696.567442051295 0  1 2 1
342 22 49.13010503087057 -175.68077774706376 -693.3977420512949 0  1 2 1
343 30 45.415715030870565 -176.50317774706377 -694.572942051295 0  1 2 0
344 22 46.16810503087057 -179.72783774706377 -695.316942051295 0  1 2 1
345 28 47.76580103087057 -180.33510774706377 -691.7274420512949 0  1 2 0
346 27 51.453565030870564 -181.05613774706376 -692.6723420512949 0  1 2 -1
347 22 52.86681503087057 -177.96689774706377 -691.1795420512949 0  1 2 1
348 21 51.498925030870566 -177.31797774706376 -687.099542051295 0  1 2 0
349 16 105.77534503087057 -175.68027774706377 -720.6515420512949 0  1 2 0
350 8 102.88624503087057 -174.03067774706375 -718.300282051295 0  1 2 0
351 2 99.34494503087058 -173.53857774706375 -716.4777220512949 0  1 2 1
352 8 97.37704503087056 -175.38507774706378 -719.1809420512949 0  1 2 0
353 12 93.53624503087056 -176.42987774706376 -720.4653420512949 0  1 2 1
354 8 91.97334503087058 -178.87583774706377 -718.3452320512949 0  1 2 0
355 8 93.02024503087057 -182.38209774706377 -719.5794420512949 0  1 2 0
356 12 95.58814503087058 -184.33945774706376 -717.370402051295 0  1 2 1
357 8 95.21274503087056 -187.84451474706376 -719.0082420512949 0  1 2 0
358 11 96.73824503087056 -190.69676774706377 -717.011702051295 0  1 2 0
359 8 96.66864503087056 -188.54207874706375 -714.0374220512949 0  1 2 0
360 12 100.30674503087056 -189.21881774706375 -712.1451820512949 0  1 2 1
361 8 98.46044503087057 -189.96688774706377 -708.809883351295 0  1 2 0
362 8 96.58684503087056 -193.42288774706375 -709.027500051295 0  1 2 0
363 1 95.25714503087056 -196.68385774706377 -707.873051051295 0  1 2 0
364 12 92.51324503087056 -197.46053774706377 -705.1336620512949 0  1 2 1
365 2 90.29154503087057 -196.06989774706375 -707.350762051295 0  1 2 1
366 9 89.64684503087057 -192.88808774706376 -709.054152051295 0  1 2 0.5
367 2 89.63584503087057 -189.10264774706377 -708.470456051295 0  1 2 1
368 12 86.15414503087057 -187.60945874706377 -707.3771820512949 0  1 2 1
369 20 83.35454503087057 -184.85492774706375 -708.2546140512949 0  1 2 0
370 11 81.00944503087057 -181.68498774706376 -708.8563145512949 0  1 2 0
371 2 79.58434503087057 -178.97751774706376 -706.3167120512949 0  1 2 1
372 4 77.52814503087058 -177.09007774706376 -703.6925120512949 0  1 2 -1
373 3 73.45304503087057 -177.66667774706377 -703.8648420512949 0  1 2 0
374 30 69.78464503087056 -177.01717774706376 -703.4562820512949 0  1 2 0
375 26 69.80884503087057 -173.84477774706377 -705.6854020512949 0  1 2 0
376 28 71.22074503087057 -176.05467774706375 -708.6573490512949 0  1 2 0
377 30 67.55964503087057 -177.96896774706377 -709.0988460512949 0  1 2 0
378 37 65.98754503087056 -176.28387774706377 -711.8035420512949 0  1 2 0
379 32 63.570645030870566 -174.16087774706375 -713.0597520512949 0  1 2 1
380 35 62.427445030870565 -175.19587774706378 -716.212752051295 0  1 2 0
381 21 61.72314503087057 -178.65107774706377 -714.833162051295 0  1 2 0
382 30 59.92244503087057 -177.03127774706377 -711.8148120512949 0  1 2 0
383 22 57.87410503087057 -174.63947774706375 -714.375172051295 0  1 2 1
384 22 57.045795030870565 -177.72457774706376 -716.1246620512949 0  1 2 1
385 31 55.965455030870565 -179.33386774706375 -712.864132051295 0  1 2 0
386 21 53.69787503087057 -176.66407774706377 -711.5760520512949 0  1 2 0
387 22 52.465145030870566 -176.82537774706375 -715.5089820512949 0  1 2 1
388 22 52.02104503087057 -180.51435774706377 -714.8510220512949 0  1 2 1
389 28 49.80164503087057 -179.27464774706377 -711.9499520512949 0  1 2 0
390 28 47.84023603087057 -176.82757774706377 -714.403362051295 0  1 2 0
391 40 49.73223503087057 -173.61197774706378 -712.9291220512949 0  1 2 0
392 32 49.637065030870566 -170.89767774706377 -716.0455020512949 0  1 2 1
393 22 50.690605030870564 -168.30417774706376 -714.2293820512949 0  1 2 1
394 30 53.930015030870564 -168.96437774706376 -711.574112051295 0  1 2 0
395 36 55.79675503087057 -166.89477774706376 -709.6143410512949 0  1 2 0
396 28 59.616245030870566 -166.24987774706375 -709.8845120512949 0  1 2 0
397 31 59.46394503087057 -165.95557774706376 -705.910522051295 0  1 2 0
398 30 58.26191503087057 -169.94287774706376 -706.4359020512949 0  1 2 0
399 39 61.71974503087057 -171.77987774706375 -707.403172051295 0  1 2 0
400 27 63.50954503087057 -170.80607774706377 -704.2802820512949 0  1 2 -1
401 27 60.67734503087057 -171.42347774706377 -701.994502051295 0  1 2 -1
402 37 60.34874503087057 -174.92317774706376 -703.9833020512949 0  1 2 0
403 22 63.78044503087057 -176.04347774706378 -702.913802051295 0  1 2 1
404 28 62.527845030870566 -174.89197774706378 -699.5035720512949 0  1 2 0
405 40 58.87634503087057 -177.22257774706375 -699.5637220512949 0  1 2 0
406 31 61.10324503087057 -179.84805774706376 -701.1574820512949 0  1 2 0
407 32 63.73594503087057 -179.94960774706377 -698.4269420512949 0  1 2 1
408 40 61.575345030870565 -179.96636774706377 -695.354542051295 0  1 2 0
409 34 59.57254503087057 -182.73278774706375 -696.9049420512949 0  1 2 0
410 31 62.71504503087057 -184.72175774706378 -698.3403420512949 0  1 2 0
411 27 64.88004503087058 -184.31750774706376 -695.1184420512949 0  1 2 -1
412 23 61.71114503087057 -185.78018774706376 -693.286642051295 0  1 2 0